XDATCAR file generated from lammps dump file with dump2xdat.py
1
23.939663253473757 0 0
0 23.939663253473757 0
0 0 23.939663253473757
H
10976
Direct configuration=   1
0.0227089 0.983867 0.0106568
0.0252996 0.997953 0.0593245
0.00443741 0.957294 0.04282
0.0355767 0.0340617 0.03387
0.0739811 0.0115759 0.013701
0.0725528 0.0469055 0.0451647
0.0271332 0.089168 0.961413
0.00165344 0.0672539 0.0165226
0.0445507 0.0821806 0.00323793
0.989703 0.0144984 0.0409782
0.00811591 0.0516169 0.0698151
0.0771314 0.00716067 0.0635339
0.989431 0.0871645 0.0754839
0.0745261 0.0651478 0.0889561
0.111799 0.0269532 0.0451721
0.123706 0.990844 0.0734023
0.145882 0.00942823 0.0250186
0.150527 0.0407332 0.0686596
0.113243 0.0723321 0.0564459
0.139004 0.0599097 0.0259437
0.107988 0.0283441 0.0871838
0.177059 0.995181 0.122515
0.161728 0.0878858 0.0795969
0.193883 0.0191486 0.0426616
0.165947 0.993829 0.0663304
0.248814 0.965841 0.00659762
0.231043 0.00772437 0.0120334
0.179861 0.0663275 0.0316858
0.256459 0.0858544 0.991735
0.182565 0.0263614 0.0948325
0.234027 0.00436048 0.0722018
0.216122 0.0484974 0.0652309
0.249213 0.0365654 0.970828
0.294973 0.00981591 0.0256996
0.309733 0.0163711 0.983456
0.351353 0.0717236 0.0273686
0.264567 0.0765307 0.0584212
0.293063 0.0909301 0.982456
0.255815 0.0363487 0.0511009
0.278674 0.995792 0.0688027
0.360958 0.0700933 0.0735281
0.350895 0.0495102 0.991075
0.310532 0.998147 0.106135
0.308538 0.971372 0.994111
0.333598 0.027362 0.0217731
0.392247 0.0792381 0.00559675
0.413885 0.0533127 0.971435
0.31094 0.0255749 0.0761734
0.341835 0.0244377 0.102899
0.406016 0.0919767 0.0777156
0.387416 0.0253271 0.00769847
0.364106 0.0289046 0.0671916
0.463798 0.977306 0.961361
0.430758 0.00824475 0.999203
0.437956 0.0694699 0.0579742
0.448664 0.0551392 0.0122973
0.343985 0.0669975 0.117874
0.402458 0.0454269 0.0371011
0.434212 0.0775834 0.104505
0.470793 0.0243199 0.989948
0.465614 0.988318 0.0304057
0.528804 0.943348 0.97596
0.561262 0.0374094 0.965787
0.536846 0.011451 0.0125346
0.503085 0.977025 0.0463294
0.430974 0.126826 0.0870516
0.439575 0.0285352 0.0621535
0.526643 0.102331 0.0446928
0.481761 0.0231901 0.0821672
0.472 0.961528 0.0957407
0.492173 0.0183361 0.0279377
0.481668 0.102573 0.0578431
0.594265 0.98882 0.96854
0.629353 0.0376222 0.0275948
0.580016 0.00531584 0.00917723
0.581729 0.0211938 0.0495061
0.566179 0.0596424 0.0150847
0.613713 0.0637303 0.0516398
0.554776 0.974804 0.0560227
0.571413 0.00157709 0.0880631
0.504589 0.0983325 0.0874712
0.641408 0.00550264 0.992828
0.683137 0.0438343 0.00301976
0.664016 0.0125471 0.0323252
0.617237 0.996828 0.0363745
0.657372 0.0726358 0.0336378
0.691376 0.121005 0.0593673
0.604366 0.967738 0.0715563
0.671232 0.0476934 0.0720363
0.630025 0.0351945 0.0790705
0.725278 0.993021 0.0229523
0.737734 0.0743351 0.974107
0.762205 0.00576443 0.0388294
0.72215 0.035915 0.0536291
0.726522 0.0454712 0.999879
0.770073 0.0504181 0.00102565
0.698408 0.00282033 0.0591833
0.743048 0.0134265 0.0910989
0.764644 0.061428 0.0536239
0.761804 0.00503081 0.985914
0.839981 0.0642143 0.00658999
0.83318 0.972544 0.0603661
0.804687 0.0150831 0.0172689
0.783389 0.0931544 0.994739
0.82646 0.100637 0.0390783
0.735535 0.981947 0.0657311
0.833912 0.0209376 0.0496049
0.80793 0.0632125 0.0342444
0.862892 0.0280262 0.989258
0.880783 0.0708907 0.996643
0.907696 0.982236 0.0500547
0.867466 0.994197 0.0377912
0.84502 0.0999602 0.967038
0.880864 0.0494156 0.0339118
0.87771 0.908815 0.104219
0.876031 0.967996 0.0885397
0.863479 0.0122104 0.0869993
0.915095 0.0210883 0.0195852
0.00616131 0.0211348 0.993667
0.947769 0.00592889 0.0483462
0.904155 0.0234509 0.061942
0.937296 0.0982258 0.00145244
0.969205 0.091992 0.0274847
0.926652 0.99169 0.0999959
0.965466 0.0407916 0.0676069
0.897835 0.0577727 0.0810153
0.0403591 0.127769 0.986625
0.0282944 0.168367 0.0212915
0.0476044 0.127874 0.0430754
0.0323912 0.1887 0.976167
0.0748208 0.156745 0.00799976
0.115216 0.180198 0.0103028
0.994053 0.131573 0.0555379
0.0185126 0.18983 0.0645134
0.0297858 0.153489 0.0801503
0.0917438 0.064445 0.013809
0.154369 0.12954 0.0323288
0.105602 0.138119 0.0291914
0.115906 0.128608 0.993939
0.0684842 0.0850465 0.0529703
0.15357 0.133272 0.0746692
0.201364 0.0964139 0.00923066
0.233091 0.0561167 0.0213481
0.201087 0.134505 0.0226248
0.241059 0.121389 0.0024383
0.195893 0.110864 0.0632991
0.194977 0.153037 0.0669055
0.278773 0.0521601 0.00326804
0.304202 0.10249 0.0711827
0.276234 0.105256 0.0283936
0.29475 0.147085 0.0270955
0.235539 0.158862 0.0353296
0.266605 0.142128 0.0640414
0.335368 0.126818 0.014706
0.369839 0.10781 0.0348961
0.338356 0.176089 0.0326277
0.363973 0.157446 0.980749
0.372134 0.130233 0.0801091
0.354522 0.174846 0.0702873
0.375816 0.119497 0.993473
0.416437 0.099035 0.0296587
0.385066 0.153586 0.0335666
0.421368 0.137022 0.0034139
0.423176 0.168393 0.0737422
0.471193 0.115533 0.110086
0.441785 0.0913403 0.992882
0.527628 0.075265 0.00711637
0.498452 0.126323 0.0104746
0.461987 0.140696 0.0548018
0.467986 0.159109 0.0140204
0.547271 0.142203 0.0406388
0.498053 0.170564 0.0422124
0.538035 0.144334 0.0838906
0.495656 0.147491 0.0849899
0.601981 0.0738347 0.00647941
0.582108 0.111243 0.00351545
0.58703 0.156561 0.0428876
0.58098 0.145653 0.094136
0.614408 0.107567 0.0840233
0.573604 0.0898757 0.0414221
0.685506 0.130985 0.0155169
0.657959 0.16516 0.0429608
0.681485 0.128528 0.971511
0.739728 0.147835 0.0812743
0.631605 0.103528 0.0380485
0.653335 0.136643 0.0755775
0.746048 0.0934916 0.0134685
0.706897 0.0803435 0.0309513
0.752933 0.133605 0.0115235
0.773118 0.140633 0.0550925
0.742913 0.108139 0.0554953
0.733376 0.149339 0.130046
0.85414 0.131288 0.998535
0.782293 0.107231 0.0361117
0.79946 0.167812 0.979315
0.859073 0.128094 0.0567795
0.816652 0.138289 0.0578249
0.774781 0.127231 0.102737
0.879591 0.109284 0.0213234
0.897125 0.101775 0.0765105
0.868102 0.170621 0.983995
0.898241 0.150046 0.025187
0.948651 0.0874025 0.071882
0.851164 0.160345 0.0905307
0.00853233 0.113263 0.0180159
0.921353 0.106866 0.039227
0.909949 0.153463 0.981786
0.980931 0.153743 0.0113762
0.96555 0.102239 0.124549
0.953084 0.128713 0.0613549
0.0431143 0.249082 0.934213
0.994387 0.193515 0.0200016
0.108641 0.171532 0.0641053
0.994185 0.218824 0.968366
0.0207129 0.227344 0.00013099
0.0700911 0.199137 0.989423
0.0494306 0.206199 0.0342362
0.988013 0.213717 0.0593251
0.0697469 0.186125 0.0696846
0.132447 0.222737 0.978388
0.181746 0.1901 0.0314785
0.135364 0.213071 0.0492294
0.169709 0.227741 0.945286
0.0973376 0.200162 0.104909
0.174875 0.281581 0.0842869
0.165368 0.163154 0.000383483
0.224268 0.214325 0.0344938
0.177171 0.22315 0.991321
0.208642 0.19103 0.997642
0.170857 0.229343 0.0705694
0.200756 0.254078 0.0366613
0.278181 0.185823 0.0222375
0.326769 0.138764 0.0550763
0.279138 0.226919 0.0324998
0.291653 0.235531 0.990765
0.257046 0.189911 0.0634852
0.290707 0.234208 0.0726855
0.338597 0.198693 0.984305
0.315961 0.211252 0.0176675
0.344158 0.249002 0.0229469
0.373495 0.237642 0.987154
0.304962 0.183243 0.0574115
0.368823 0.232059 0.0778288
0.384393 0.190707 0.0027249
0.433378 0.176906 0.0349076
0.39185 0.241234 0.0389324
0.418416 0.231571 0.988833
0.396197 0.198203 0.058284
0.424804 0.219837 0.0282745
0.428236 0.177937 0.986956
0.550633 0.171082 0.975208
0.522484 0.17066 0.00371752
0.456193 0.212435 0.99729
0.491634 0.196129 0.977671
0.482831 0.252057 0.978906
0.469131 0.206913 0.0375213
0.476166 0.1583 0.132176
0.508533 0.196611 0.0757615
0.616556 0.1774 0.0180714
0.560844 0.186118 0.0209338
0.591243 0.201254 0.984842
0.598807 0.20713 0.0464269
0.565727 0.175359 0.121362
0.542702 0.230888 0.0563104
0.70759 0.170793 0.994922
0.709649 0.15793 0.0454716
0.649391 0.20706 0.979747
0.676012 0.204507 0.0126477
0.685823 0.169196 0.0839535
0.642458 0.178024 0.0829044
0.754649 0.212287 0.0217643
0.757848 0.171277 0.0288338
0.721461 0.205019 0.970665
0.717588 0.196568 0.0305088
0.741312 0.201431 0.0682166
0.708105 0.212267 0.0915519
0.810419 0.216205 0.0133657
0.813491 0.175051 0.0228871
0.807871 0.248219 0.975492
0.840154 0.234716 0.0339748
0.794023 0.172639 0.0783611
0.750058 0.237548 0.0939728
0.912574 0.194866 0.0109213
0.870736 0.177232 0.0362655
0.839686 0.217845 0.983172
0.872027 0.212923 0.0128169
0.890793 0.176463 0.0733853
0.88171 0.243353 0.0485114
0.963611 0.183755 0.979918
0.938892 0.148806 0.0165617
0.950349 0.22987 0.989264
0.951643 0.210634 0.0324905
0.977803 0.170169 0.0608086
0.932188 0.169262 0.0761162
0.061561 0.264544 0.981735
0.0180696 0.254439 0.0546739
0.0924832 0.221037 0.030574
0.0246387 0.268554 0.00284109
0.0610555 0.258374 0.0311447
0.102445 0.271788 0.0172675
0.0489518 0.225861 0.0729184
0.0370319 0.295374 0.0467705
0.0878783 0.243183 0.0771798
0.0950348 0.23885 0.990017
0.147528 0.252633 0.0220343
0.0987705 0.297537 0.0507104
0.139188 0.298739 0.0375557
0.12163 0.259768 0.0515656
0.127496 0.290669 0.0827871
0.185375 0.273889 0.00209237
0.231936 0.264291 0.00242779
0.192103 0.298168 0.0456421
0.224676 0.320982 0.0637189
0.155078 0.321025 0.102799
0.22857 0.278386 0.0703507
0.291152 0.282003 0.0247299
0.295855 0.273707 0.0679682
0.253007 0.305346 0.0262096
0.288914 0.335516 0.973322
0.255105 0.253186 0.0488021
0.244581 0.317992 0.129462
0.334703 0.237873 0.973182
0.353675 0.210555 0.0462365
0.335099 0.283814 0.0029586
0.368647 0.284619 0.973853
0.288351 0.314654 0.11886
0.341923 0.325078 0.0224838
0.399529 0.269165 0.00380673
0.443378 0.265697 0.0218941
0.374054 0.318527 0.0651716
0.440345 0.308441 0.00884764
0.360648 0.276935 0.0537794
0.399544 0.288816 0.0450309
0.439059 0.267565 0.977266
0.573132 0.284492 0.00815485
0.479454 0.248667 0.0227827
0.488548 0.292966 0.0140943
0.514463 0.324466 0.99155
0.523437 0.267912 0.0275121
0.404263 0.257729 0.0801811
0.491527 0.236205 0.0647881
0.485404 0.294875 0.064284
0.604947 0.253772 0.014455
0.56306 0.228477 0.0178313
0.608552 0.280651 0.986258
0.586088 0.24449 0.0630412
0.624987 0.227317 0.0970224
0.525196 0.271715 0.069501
0.652749 0.2543 0.0047664
0.65309 0.215934 0.045255
0.630042 0.311794 0.0222148
0.656816 0.301132 0.055883
0.680147 0.238364 0.0689439
0.633993 0.293108 0.0895249
0.742004 0.254857 0.978366
0.70055 0.245662 0.0091908
0.706626 0.286067 0.9934
0.712463 0.280497 0.0508841
0.721166 0.240119 0.0479585
0.676402 0.288418 0.100736
0.850938 0.259878 0.966363
0.79113 0.198917 0.0494133
0.779587 0.283258 0.975332
0.779046 0.2508 0.0173538
0.832954 0.199167 0.0635653
0.76024 0.260698 0.0571146
0.886876 0.243104 0.981748
0.861031 0.26287 0.0120015
0.933619 0.308269 0.967378
0.903395 0.29335 0.00990196
0.907169 0.208224 0.0527889
0.877602 0.306707 0.0423357
0.98821 0.240739 0.0227862
0.91774 0.242092 0.0185202
0.942176 0.272613 0.98379
0.949962 0.271343 0.0240866
0.968032 0.25717 0.0610972
0.923001 0.258046 0.0597205
0.0322934 0.331718 0.970089
0.000597521 0.32454 0.0226352
0.0476262 0.307362 0.0063511
0.99904 0.361091 0.987509
0.0339844 0.360293 0.0231473
0.0384949 0.376263 0.97154
0.0587695 0.334487 0.0473997
0.0196535 0.336734 0.0784824
0.0390635 0.376294 0.0725506
0.108446 0.353344 0.984429
0.138675 0.338207 0.0605251
0.0691718 0.354173 0.00787869
0.146901 0.365587 0.968791
0.10346 0.357264 0.0330011
0.143272 0.381432 0.0714741
0.183828 0.334532 0.0253961
0.224026 0.373026 0.985371
0.144607 0.362462 0.0169321
0.178879 0.369205 0.99664
0.185982 0.347828 0.0829849
0.209099 0.38555 0.0346795
0.256434 0.35368 0.00691121
0.292343 0.324942 0.0282581
0.298969 0.364059 0.0511365
0.253002 0.391712 0.962233
0.269808 0.307199 0.0748143
0.353223 0.356332 0.0616989
0.331423 0.320624 0.969203
0.367772 0.375397 0.0226883
0.327007 0.365167 0.987989
0.337891 0.409561 0.996202
0.265303 0.356309 0.115304
0.371775 0.397474 0.0712675
0.385152 0.313645 4.84689e-05
0.397056 0.339702 0.0373492
0.375017 0.419 0.0222185
0.409863 0.373145 0.00924999
0.367869 0.33969 0.103252
0.415709 0.373466 0.0576484
0.481747 0.357854 0.997722
0.555524 0.329519 0.988961
0.459962 0.329507 0.0394391
0.460455 0.377578 0.0640635
0.507572 0.354818 0.0497984
0.531308 0.308752 0.0447368
0.432377 0.33794 0.090345
0.522886 0.329545 0.0834276
0.497751 0.389451 0.0797549
0.598639 0.326368 0.993325
0.569448 0.320221 0.0306219
0.5481 0.377255 0.989001
0.584462 0.390637 0.0664387
0.559761 0.296225 0.0782548
0.541659 0.372108 0.0633935
0.684537 0.304237 0.0220128
0.613269 0.282417 0.0465497
0.647625 0.332273 0.983901
0.685162 0.380388 0.062406
0.649444 0.350461 0.0491445
0.630898 0.393835 0.0411577
0.741859 0.268463 0.017966
0.681768 0.349868 0.0252027
0.717658 0.385936 0.0147652
0.768376 0.318829 0.00529938
0.747156 0.311844 0.0445561
0.681659 0.334048 0.0678273
0.846267 0.276729 0.0632758
0.808043 0.290185 0.0180528
0.797209 0.408439 0.0317339
0.810094 0.348604 0.00503995
0.786818 0.311617 0.0469862
0.772609 0.309643 0.115539
0.955562 0.311658 0.0114339
0.851392 0.306382 0.00619974
0.876137 0.351371 0.978484
0.911884 0.331934 0.997195
0.828238 0.337177 0.0478995
0.866199 0.34338 0.0235759
0.993794 0.290108 0.0446352
0.914319 0.348382 0.0351695
0.936892 0.356972 0.965483
0.961177 0.354933 0.0176347
0.967358 0.328415 0.0551884
0.911713 0.316919 0.0822021
0.0285632 0.432113 0.961631
0.993341 0.397257 0.0202648
0.0538367 0.394049 0.00738037
0.999577 0.448101 0.0217196
0.992885 0.442384 0.0659655
0.0749175 0.415602 0.976338
0.992666 0.365666 0.0480481
0.00708236 0.428198 0.112162
0.0301966 0.418196 0.0294223
0.103425 0.395646 0.99848
0.132062 0.40121 0.0386388
0.0775747 0.430028 0.0252316
0.102585 0.453255 0.998434
0.0837596 0.391692 0.0442414
0.106491 0.41809 0.0695294
0.148291 0.441203 0.00349711
0.17268 0.406085 0.0301588
0.175584 0.452646 0.0375484
0.215218 0.447414 0.0131903
0.16671 0.415214 0.0824115
0.207518 0.384189 0.0800339
0.285018 0.386893 0.00975696
0.285833 0.403785 0.0507417
0.255062 0.354839 0.0603634
0.242498 0.411379 0.0154711
0.225358 0.409746 0.131185
0.264615 0.397479 0.0906775
0.286174 0.426947 0.0157523
0.326005 0.385298 0.0276496
0.327933 0.438631 0.027767
0.368463 0.498718 0.997954
0.326163 0.397495 0.0675603
0.325965 0.469907 0.0698643
0.414434 0.409135 0.986242
0.437363 0.413481 0.0413661
0.376599 0.451704 0.0636931
0.456463 0.389982 0.00886707
0.345377 0.433862 0.0909014
0.428211 0.405018 0.0892467
0.494465 0.408981 0.0412209
0.533476 0.398897 0.0305726
0.547472 0.409564 0.0898341
0.466126 0.441451 0.0542692
0.523475 0.434405 0.0108333
0.561638 0.440863 0.0620317
0.457488 0.374417 0.106138
0.576951 0.406179 0.13309
0.503746 0.436311 0.0803349
0.62792 0.367691 0.969567
0.60737 0.358527 0.0325028
0.585306 0.385948 0.962126
0.619714 0.401917 0.00303012
0.606836 0.424896 0.0530257
0.57597 0.400879 0.0238633
0.656091 0.426898 0.992859
0.668339 0.381837 0.000283736
0.654572 0.399884 0.962375
0.670703 0.423057 0.036802
0.686378 0.428458 0.0821272
0.64438 0.436864 0.0764722
0.722793 0.349995 0.0561105
0.753651 0.38521 0.0587668
0.722837 0.439214 0.0435097
0.768214 0.430585 0.0465268
0.754371 0.338704 0.0883691
0.71783 0.460497 0.0807986
0.851381 0.38288 0.0281531
0.759734 0.347993 0.035301
0.839979 0.440155 0.00180023
0.802805 0.461255 0.0621765
0.79621 0.368427 0.0437008
0.789253 0.406859 0.0767455
0.919284 0.422472 0.977878
0.875447 0.417406 0.993614
0.880446 0.464669 0.0297898
0.920136 0.444747 0.0293141
0.888183 0.40343 0.0442486
0.840307 0.425936 0.0503051
0.938429 0.393515 0.00683343
0.8943 0.376888 0.00537263
0.891247 0.456418 0.988991
0.957378 0.417229 0.0399093
0.946065 0.370084 0.0575077
0.931206 0.414154 0.0696955
0.0537618 0.454562 0.98932
0.0251891 0.484081 0.0130783
0.0498517 0.45869 0.0408264
0.0285579 0.532516 0.0099051
0.0718511 0.540782 0.00602847
0.0483161 0.559503 0.0371221
0.998687 0.572213 0.0464144
0.059527 0.511888 0.0555755
0.102943 0.513592 0.0345821
0.0354558 0.439493 0.0751181
0.0150102 0.484346 0.0635371
0.0489218 0.557765 0.0870687
0.0793599 0.52259 0.0926904
0.0723283 0.487038 0.0204967
0.103765 0.46334 0.0443614
0.148562 0.511146 0.968872
0.110855 0.495995 0.0721523
0.135623 0.484659 0.0166869
0.144783 0.517278 0.0414592
0.0790011 0.457629 0.0817007
0.12225 0.545696 0.0810869
0.163374 0.492897 0.0748749
0.18325 0.518284 0.936636
0.221313 0.476959 0.0552675
0.188045 0.513368 0.986027
0.189481 0.487782 0.0287677
0.164052 0.475927 0.983135
0.252991 0.507943 0.0131056
0.142991 0.452719 0.0768044
0.169433 0.539611 0.0716926
0.186017 0.519359 0.107474
0.25549 0.462917 0.0127546
0.287858 0.448309 0.0508443
0.264769 0.538059 0.966922
0.208519 0.42802 0.0509197
0.28705 0.468512 0.983903
0.26735 0.488227 0.0582691
0.225126 0.43216 0.0898255
0.241286 0.501805 0.0972981
0.254404 0.432395 0.0628599
0.316634 0.483798 0.0335954
0.35781 0.471289 0.0288123
0.290666 0.512902 0.00710192
0.298692 0.494692 0.0941687
0.317005 0.52566 0.974497
0.331252 0.536503 0.0777397
0.350299 0.486886 0.1004
0.281598 0.538823 0.0965986
0.395617 0.481693 0.084209
0.400377 0.487434 0.0331948
0.41697 0.447836 0.031159
0.402962 0.546708 0.975613
0.342581 0.526061 0.0307823
0.415715 0.50701 0.997524
0.426455 0.544838 0.0238677
0.430475 0.464021 0.0702006
0.398142 0.539786 0.0694235
0.38132 0.533947 0.0069711
0.472971 0.431268 0.0133128
0.521393 0.472958 0.986747
0.489683 0.47274 0.0301018
0.447222 0.546551 0.981544
0.445222 0.472309 0.0204679
0.462571 0.506761 0.00526666
0.493716 0.515955 0.973765
0.541745 0.530537 0.0397657
0.520176 0.560999 0.00718818
0.465954 0.448241 0.0960193
0.538702 0.468277 0.0331756
0.456861 0.525908 0.0500632
0.49695 0.524392 0.0357807
0.528062 0.549305 0.083721
0.606477 0.456468 0.990726
0.558215 0.447328 0.999086
0.584642 0.488302 0.982707
0.648613 0.542651 0.972689
0.590987 0.469848 0.0430214
0.537416 0.514386 0.000134524
0.603311 0.47507 0.0819793
0.571232 0.504036 0.0241557
0.597415 0.53207 0.0474478
0.697801 0.457333 0.000957199
0.644611 0.458163 0.0259567
0.646129 0.482428 0.988105
0.660404 0.535649 0.92731
0.660325 0.505142 0.0220288
0.636554 0.550471 0.0132081
0.683895 0.469287 0.0412682
0.61809 0.498892 0.0233589
0.666692 0.548088 0.0468998
0.77589 0.427589 0.996855
0.710685 0.499923 0.0654207
0.689018 0.500602 0.970199
0.769315 0.522613 0.0033626
0.735233 0.496783 0.01796
0.699627 0.524329 0.029986
0.745128 0.536948 0.112461
0.694699 0.515615 0.10223
0.712433 0.551226 0.0675965
0.83607 0.471287 0.031823
0.757777 0.470428 0.069621
0.789366 0.469571 0.0200786
0.831055 0.566193 0.0103561
0.80119 0.503208 0.0512391
0.803468 0.542088 0.0374997
0.89003 0.49057 0.109593
0.771269 0.513488 0.0858207
0.82764 0.524636 0.0784818
0.851079 0.50135 0.99769
0.871413 0.463454 0.0794477
0.814842 0.52662 0.991957
0.897932 0.506812 0.0198974
0.908429 0.502738 0.0714165
0.85359 0.499829 0.0538725
0.90966 0.449878 0.0697016
0.92576 0.466496 0.114711
0.912594 0.574183 0.0733229
0.955596 0.435425 0.00159897
0.966276 0.470085 0.0431311
0.932848 0.473176 0.991155
0.988352 0.555829 0.993465
0.982625 0.533481 0.027676
0.950332 0.511606 0.00551817
0.998303 0.493017 0.101413
0.930517 0.490726 0.038354
0.940599 0.537008 0.0410575
0.03567 0.583422 0.00465519
0.0819782 0.582504 0.00426129
0.0581894 0.613915 0.0274637
0.0016505 0.621426 0.0350424
0.128031 0.570759 0.010391
0.0774467 0.637932 0.997907
0.955427 0.6106 0.0727907
0.0415385 0.605576 0.0681259
0.0921094 0.570521 0.105985
0.120729 0.610373 0.0338132
0.0993448 0.571341 0.0431877
0.16597 0.548915 0.993819
0.155903 0.633723 0.0509483
0.100545 0.600788 0.0729495
0.140212 0.575565 0.0623465
0.161015 0.597637 0.0172088
0.183043 0.54556 0.0341973
0.198214 0.577785 0.0127514
0.189678 0.604982 0.054313
0.179612 0.579305 0.0898761
0.198936 0.512189 0.063547
0.279171 0.602262 0.97333
0.219862 0.53135 0.014439
0.292735 0.555146 0.994648
0.283154 0.593073 0.0142066
0.265186 0.608699 0.0507672
0.240941 0.523573 0.0532348
0.318989 0.588271 0.99114
0.287676 0.526997 0.0563067
0.379756 0.595094 0.987731
0.382852 0.637087 0.0201354
0.313574 0.559657 0.0410646
0.403767 0.58385 0.0794064
0.37561 0.64621 0.97046
0.357637 0.575204 0.0386165
0.439797 0.596025 0.997146
0.401627 0.584879 0.0284497
0.42404 0.629357 0.0429437
0.444793 0.577892 0.0428466
0.493826 0.597376 0.0190841
0.474611 0.55651 0.0193887
0.484528 0.569565 0.979074
0.525709 0.587462 0.9762
0.565074 0.54603 0.0124359
0.474262 0.599916 0.0599256
0.454186 0.59379 0.106148
0.503441 0.56691 0.0503008
0.516799 0.607203 0.0799306
0.564714 0.558821 0.938763
0.620398 0.579637 0.988525
0.597694 0.570877 0.0244798
0.548639 0.581943 0.0317181
0.569097 0.554739 0.0692384
0.598783 0.600925 0.0563771
0.682511 0.552568 0.991337
0.700642 0.618712 0.0106047
0.711771 0.562893 0.0284441
0.662326 0.591211 0.990983
0.634948 0.516175 0.0605711
0.665959 0.606103 0.0282458
0.725016 0.525864 0.993821
0.750633 0.56718 0.014888
0.7575 0.533739 0.0425711
0.748313 0.574149 0.0630087
0.723868 0.592394 0.0961275
0.781908 0.599231 0.0855369
0.78697 0.561783 0.991252
0.81276 0.620049 0.956115
0.809536 0.631228 0.0100295
0.785302 0.582282 0.0333342
0.795565 0.557901 0.0720305
0.852183 0.559792 0.0616473
0.866165 0.544676 0.982599
0.880067 0.583865 0.962859
0.856307 0.53967 0.0278111
0.846167 0.60381 0.0265273
0.897362 0.550621 0.0407087
0.874933 0.643522 0.085246
0.931746 0.564392 0.010511
0.949351 0.61542 0.0178078
0.957186 0.578946 0.0411394
0.910491 0.63481 0.00571742
0.888887 0.576625 0.00044216
0.938324 0.624138 0.112565
0.966806 0.601869 0.980603
0.0445395 0.659253 0.978586
0.0283949 0.633158 0.00668597
0.998593 0.63618 0.078172
0.0930551 0.60138 0.963511
0.00363265 0.698674 0.0260121
0.95702 0.665102 0.10302
0.0406962 0.657647 0.0911308
0.0357753 0.651109 0.048725
0.0852355 0.683378 0.00676963
0.0846396 0.641809 0.0466277
0.144817 0.654716 0.0137079
0.183733 0.697896 0.0580576
0.0678157 0.681373 0.0441402
0.128179 0.635332 0.0821954
0.179116 0.681482 0.0198547
0.194332 0.656061 0.052242
0.217694 0.640307 0.0125926
0.222476 0.681299 0.0291653
0.190269 0.657997 0.0959828
0.238469 0.66136 0.0650807
0.280209 0.666193 0.0492652
0.233508 0.603438 0.0248081
0.311493 0.644339 0.0230847
0.260904 0.693745 0.0770695
0.232564 0.681373 0.10937
0.310947 0.605965 0.0517287
0.34177 0.687713 0.0415063
0.347943 0.61361 0.0215942
0.341918 0.66776 0.995285
0.376643 0.679338 0.0221843
0.339403 0.649337 0.0593417
0.370356 0.617415 0.0603896
0.429051 0.701595 0.99402
0.391341 0.653425 0.0575916
0.412211 0.660008 0.995807
0.424018 0.678308 0.042145
0.358848 0.7062 0.126456
0.453626 0.635428 0.118853
0.482922 0.645038 0.0429507
0.453852 0.639111 0.0140896
0.499809 0.663317 0.00644259
0.543661 0.627676 0.986997
0.520941 0.630727 0.0262495
0.494384 0.696838 0.0541013
0.463566 0.6699 0.0695476
0.482891 0.631599 0.0882428
0.532554 0.670102 0.049144
0.573254 0.590871 0.982267
0.608926 0.647712 0.971446
0.619304 0.645046 0.0105505
0.577898 0.623261 0.00819154
0.552436 0.621681 0.0675832
0.607832 0.678239 0.0445149
0.649416 0.613285 0.952567
0.676769 0.650561 0.973977
0.680875 0.656212 0.0176057
0.645654 0.684484 0.0192648
0.626654 0.604997 0.0908394
0.704034 0.688589 0.020118
0.754201 0.590974 0.957265
0.723698 0.641629 0.0308078
0.767323 0.671991 0.0610342
0.752484 0.611206 0.017287
0.726927 0.69609 0.0594862
0.707871 0.738031 0.0581541
0.742882 0.615306 0.0631591
0.789497 0.671529 0.998427
0.823222 0.600407 0.0671
0.798123 0.694695 0.0333312
0.784953 0.632519 0.0492358
0.831519 0.691265 0.0860398
0.863996 0.629094 0.990238
0.847533 0.722355 0.99471
0.878044 0.643741 0.0411662
0.839562 0.648323 0.0337128
0.833991 0.647848 0.0797267
0.847781 0.68999 0.0335425
0.885187 0.668942 0.985554
0.0030862 0.657215 0.97255
0.907051 0.600928 0.0374163
0.934335 0.665653 0.997806
0.915733 0.62798 0.0731505
0.946098 0.651859 0.0435547
0.0076095 0.697149 0.980556
0.0509787 0.752123 0.982301
0.0189433 0.692504 0.0633696
0.972263 0.731929 0.0172836
0.081483 0.659331 0.946481
0.0486859 0.717634 0.00699692
0.976107 0.68429 0.0674064
0.984249 0.734997 0.0811757
0.0615029 0.722552 0.0593504
0.13261 0.702163 0.00808161
0.137418 0.675923 0.0480687
0.175149 0.722576 0.996878
0.161748 0.735367 0.0318558
0.0957996 0.740115 0.0851599
0.183249 0.744006 0.074061
0.186944 0.764798 0.0252611
0.210784 0.712638 0.0876875
0.208606 0.726477 0.0275997
0.217005 0.762328 0.0568427
0.207186 0.748729 0.111893
0.22284 0.706629 0.142816
0.255419 0.702381 0.0147912
0.248481 0.732918 0.0465823
0.296733 0.701408 0.0315741
0.301459 0.766336 0.043791
0.238418 0.752457 0.142148
0.307117 0.715526 0.0771193
0.289386 0.738753 0.00901723
0.340535 0.731426 0.0420742
0.335885 0.712354 0.0024884
0.376031 0.742727 0.0599299
0.348424 0.703544 0.0769324
0.386364 0.708417 0.0893894
0.372128 0.757521 0.00842966
0.399251 0.715251 0.0402163
0.436538 0.730211 0.0425297
0.408906 0.755187 0.0189204
0.404322 0.745484 0.106165
0.428058 0.697537 0.0858595
0.451203 0.744066 0.000743479
0.480407 0.742887 0.028657
0.464348 0.709909 0.969995
0.522957 0.751618 0.00879716
0.465234 0.688571 0.0217694
0.453397 0.783282 0.0388929
0.420589 0.758863 0.0663887
0.519518 0.740365 0.0701907
0.515586 0.781202 0.0378582
0.537974 0.682727 0.991288
0.601913 0.738463 0.0261362
0.577596 0.666695 0.0127896
0.566044 0.758987 0.0168388
0.570727 0.708781 0.0417828
0.634001 0.74608 0.0541909
0.614086 0.694054 0.981171
0.665529 0.746254 0.965268
0.680183 0.702568 0.97452
0.639299 0.765977 0.000520913
0.644998 0.721539 0.990694
0.675213 0.75897 0.0367045
0.727174 0.675682 0.98162
0.729803 0.73544 0.0162208
0.760905 0.720876 0.0618223
0.681936 0.740607 0.00186416
0.662326 0.724981 0.0706392
0.738248 0.767994 0.0653825
0.754648 0.686148 0.0230795
0.823707 0.765266 0.0090796
0.828693 0.72635 0.0338172
0.78315 0.737875 0.028213
0.788271 0.69879 0.0929685
0.815249 0.769054 0.0520283
0.802949 0.723511 0.992121
0.905374 0.758179 0.990847
0.892586 0.708264 0.00752194
0.86676 0.748135 0.0205407
0.865212 0.717715 0.0699177
0.899037 0.736195 0.0874441
0.920685 0.723922 0.962653
0.906877 0.797892 0.00778843
0.978785 0.668473 0.0139746
0.933619 0.717879 0.998959
0.909372 0.667991 0.0357724
0.942337 0.694108 0.0362472
0.0131556 0.743948 0.999327
0.0256614 0.795179 0.00665827
0.993668 0.764713 0.0357264
0.998213 0.818799 0.0633777
0.101092 0.716565 0.0344255
0.0821771 0.767365 0.00837689
0.98886 0.780849 0.0829603
0.0539292 0.830369 0.0850667
0.0198534 0.737198 0.0530799
0.113038 0.790618 0.0323709
0.0798655 0.765494 0.0532495
0.124444 0.749704 0.0191895
0.141201 0.768215 0.0542107
0.167255 0.806991 0.130722
0.145982 0.784402 0.0999667
0.155802 0.787559 0.0136683
0.178014 0.786731 0.0622426
0.188389 0.819405 0.0360311
0.242279 0.813428 0.0574679
0.216219 0.788933 0.0889279
0.241805 0.828095 0.129146
0.23284 0.791309 0.986075
0.244579 0.745015 0.0932685
0.248814 0.750146 0.00890704
0.258487 0.778085 0.0497918
0.28847 0.779606 0.0833097
0.32732 0.754432 0.0771058
0.29058 0.795 0.0167179
0.344939 0.772858 0.0438102
0.355362 0.785958 0.963717
0.366906 0.804498 0.00767802
0.348013 0.82489 0.0374877
0.383173 0.78487 0.0474984
0.423757 0.795249 0.950828
0.399503 0.772131 0.974721
0.418698 0.797265 0.0144639
0.42368 0.801408 0.0607926
0.372403 0.837876 0.0831543
0.365027 0.784467 0.142851
0.448018 0.824995 0.958767
0.399185 0.792097 0.0949389
0.488788 0.819468 0.0176765
0.519622 0.82572 0.982297
0.486416 0.849685 0.0455098
0.506454 0.822778 0.0766401
0.440884 0.822017 0.143962
0.483227 0.766305 0.0760527
0.534241 0.821827 0.0317834
0.535261 0.790464 0.999352
0.572574 0.796035 0.976957
0.577036 0.804284 0.0239296
0.565332 0.846976 0.00245277
0.554348 0.790735 0.0596138
0.579749 0.842008 0.0805806
0.623904 0.769016 0.953983
0.67556 0.835422 0.987359
0.683551 0.793305 0.00844904
0.644167 0.806568 0.0251297
0.611417 0.778884 0.0432139
0.6527 0.791269 0.0646738
0.741376 0.794302 0.975732
0.722796 0.816842 0.00457367
0.729966 0.777604 0.0190371
0.690208 0.833691 0.0314451
0.628508 0.771144 0.103554
0.737743 0.821148 0.0468099
0.767859 0.766007 0.988254
0.838573 0.822547 0.995443
0.809875 0.804808 0.0252151
0.825309 0.850241 0.0719292
0.773927 0.793838 0.0454385
0.76803 0.84427 0.0668652
0.882176 0.827553 0.0315681
0.9219 0.831873 0.0373264
0.919075 0.769481 0.0668325
0.856201 0.792311 0.0173569
0.868259 0.772558 0.0606041
0.902835 0.818743 0.0815806
0.926545 0.746587 0.0260634
0.962912 0.80277 0.928843
0.96088 0.764831 0.058313
0.948308 0.82524 0.0764765
0.94767 0.758093 0.102326
0.927962 0.819956 0.11752
0.959971 0.801632 0.0349405
0.0713057 0.88791 0.0100853
0.0196138 0.862725 0.0620962
0.999398 0.87861 0.998079
0.0254415 0.784175 0.0531493
0.100581 0.896151 0.0385361
0.0183207 0.848747 0.105115
0.00494349 0.887667 0.0967357
0.0725284 0.863422 0.051734
0.0802277 0.809491 0.0145358
0.14667 0.882138 0.0443605
0.142004 0.830458 0.0480394
0.141217 0.863829 0.0849086
0.112822 0.896314 0.0759637
0.15918 0.819138 0.0913737
0.186529 0.890176 0.0339137
0.175776 0.853451 0.0603685
0.207678 0.829448 0.99962
0.217076 0.8486 0.0474903
0.182199 0.867805 0.103856
0.223722 0.868847 0.0914575
0.25296 0.839832 0.975758
0.256621 0.825641 0.0163757
0.307727 0.854407 0.951494
0.234155 0.863393 0.0150978
0.264097 0.860255 0.0499496
0.267101 0.832738 0.0942086
0.289711 0.878826 0.0179236
0.300769 0.83105 0.0448491
0.327265 0.815876 0.993613
0.372657 0.852361 0.999953
0.299705 0.900569 0.09318
0.334903 0.865797 0.0588564
0.368634 0.900924 0.0160291
0.389919 0.8283 0.0451163
0.387058 0.822328 0.975861
0.426717 0.841224 0.998448
0.381489 0.875299 0.0523806
0.430506 0.884876 0.059199
0.479981 0.882469 0.966923
0.441627 0.842947 0.0451245
0.465407 0.871506 0.0131985
0.496683 0.904116 0.999343
0.513355 0.875238 0.0179839
0.484489 0.892526 0.0524796
0.45295 0.917033 0.0799892
0.501605 0.861663 0.0855409
0.535863 0.895496 0.0858658
0.567802 0.837453 0.96091
0.586976 0.872185 0.978758
0.609232 0.803843 0.997588
0.550421 0.901701 0.0128422
0.536109 0.86061 0.0584079
0.582515 0.856828 0.0454942
0.615178 0.848204 0.00264627
0.645513 0.882953 0.994873
0.647655 0.853549 0.0259085
0.620976 0.874543 0.0497574
0.61429 0.826826 0.0571059
0.688078 0.874512 0.0829335
0.698486 0.879338 0.0319739
0.743824 0.879014 0.977797
0.728175 0.903806 0.049291
0.726615 0.94342 0.0445352
0.702937 0.8349 0.0857788
0.727005 0.907518 0.0921887